/*--------------------------------*- C++ -*----------------------------------*\
| =========                 |                                                 |
| \\      /  F ield         | OpenFOAM: The Open Source CFD Toolbox           |
|  \\    /   O peration     | Version:  5.x                                   |
|   \\  /    A nd           | Web:      www.OpenFOAM.org                      |
|    \\/     M anipulation  |                                                 |
\*---------------------------------------------------------------------------*/
FoamFile
{
    version     2.0;
    format      ascii;
    class       volScalarField;
    location    "0";
    object      g;
}
// * * * * * * * * * * * * * * * * * * * * * * * * * * * * * * * * * * * * * //

dimensions      [0 0 0 1 0 0 0];

internalField   nonuniform List<scalar> 
400
(
0.000124351
0.000348312
0.000537362
0.000690222
0.000806618
0.000887132
0.000933089
0.000946457
0.000929835
0.00088638
0.00081979
0.00073432
0.00063471
0.00052616
0.00041426
0.000304875
0.000204003
0.00011758
5.1218e-05
9.928e-06
0.000348312
0.000835666
0.00104668
0.00099513
0.0007057
0.00021265
-0.00044181
-0.00120917
-0.00203636
-0.00286767
-0.00364653
-0.00431743
-0.00482779
-0.00512958
-0.0051814
-0.00494942
-0.0044093
-0.00354726
-0.00236108
-0.000860989
0.000537362
0.00104668
0.00082035
-9.025e-05
-0.00160282
-0.00360801
-0.00597408
-0.00855158
-0.0111794
-0.0136906
-0.0159177
-0.0176998
-0.0188875
-0.0193492
-0.0189759
-0.0176856
-0.0154279
-0.012186
-0.00797993
-0.00286759
0.000690222
0.00099513
-9.025e-05
-0.0024564
-0.00593393
-0.0103011
-0.0152925
-0.0206091
-0.0259299
-0.0309233
-0.0352598
-0.0386235
-0.0407252
-0.0413124
-0.0401804
-0.0371814
-0.0322311
-0.0253153
-0.0164931
-0.00589894
0.000806618
0.0007057
-0.00160282
-0.00593393
-0.0120065
-0.0194544
-0.0278419
-0.0366796
-0.0454428
-0.0535915
-0.0605899
-0.065927
-0.0691365
-0.0698148
-0.0676383
-0.0623778
-0.0539101
-0.0422276
-0.0274433
-0.00979291
0.000887132
0.00021265
-0.00360801
-0.0103011
-0.0194544
-0.0305341
-0.042906
-0.0558591
-0.0686325
-0.0804439
-0.0905187
-0.0981206
-0.102578
-0.103314
-0.0998689
-0.0919209
-0.0793029
-0.0620189
-0.0402465
-0.0143421
0.000933089
-0.00044181
-0.00597408
-0.0152925
-0.0278419
-0.042906
-0.0596346
-0.077076
-0.0942129
-0.110001
-0.123404
-0.133445
-0.139228
-0.139991
-0.135125
-0.124211
-0.107039
-0.0836222
-0.0542139
-0.0193024
0.000946457
-0.00120917
-0.00855158
-0.0206091
-0.0366796
-0.0558591
-0.077076
-0.099132
-0.120747
-0.140606
-0.157412
-0.169933
-0.177053
-0.177812
-0.171457
-0.157466
-0.135586
-0.105848
-0.068577
-0.0244011
0.000929835
-0.00203636
-0.0111794
-0.0259299
-0.0454428
-0.0686325
-0.0942129
-0.120747
-0.1467
-0.170497
-0.190586
-0.205492
-0.213882
-0.214613
-0.206786
-0.189787
-0.163319
-0.127428
-0.0825175
-0.0293477
0.00088638
-0.00286767
-0.0136906
-0.0309233
-0.0535915
-0.0804439
-0.110001
-0.140606
-0.170497
-0.197863
-0.22092
-0.237975
-0.247496
-0.248176
-0.238987
-0.219228
-0.188567
-0.147066
-0.0951979
-0.0338454
0.00081979
-0.00364653
-0.0159177
-0.0352598
-0.0605899
-0.0905187
-0.123404
-0.157412
-0.190586
-0.22092
-0.246436
-0.265263
-0.275704
-0.276315
-0.265961
-0.243873
-0.209689
-0.163485
-0.105793
-0.0376015
0.00073432
-0.00431743
-0.0176998
-0.0386235
-0.065927
-0.0981206
-0.133445
-0.169933
-0.205492
-0.237975
-0.265263
-0.285353
-0.296434
-0.296963
-0.285728
-0.26191
-0.225131
-0.175477
-0.113524
-0.04034
0.00063471
-0.00482779
-0.0188875
-0.0407252
-0.0691365
-0.102578
-0.139228
-0.177053
-0.213882
-0.247496
-0.275704
-0.296434
-0.307816
-0.308252
-0.296496
-0.271706
-0.233491
-0.181952
-0.117688
-0.0418114
0.00052616
-0.00512958
-0.0193492
-0.0413124
-0.0698148
-0.103314
-0.139991
-0.177812
-0.214613
-0.248176
-0.276315
-0.296963
-0.308252
-0.308594
-0.296745
-0.271868
-0.233581
-0.181986
-0.117689
-0.0418044
0.00041426
-0.0051814
-0.0189759
-0.0401804
-0.0676383
-0.0998689
-0.135125
-0.171457
-0.206786
-0.238987
-0.265961
-0.285728
-0.296496
-0.296745
-0.285283
-0.261313
-0.22447
-0.174857
-0.113061
-0.0401545
0.000304875
-0.00494942
-0.0176856
-0.0371814
-0.0623778
-0.0919209
-0.124211
-0.157466
-0.189787
-0.219228
-0.243873
-0.26191
-0.271706
-0.271868
-0.261313
-0.239312
-0.205536
-0.160083
-0.103494
-0.0367517
0.000204003
-0.0044093
-0.0154279
-0.0322311
-0.0539101
-0.0793029
-0.107039
-0.135586
-0.163319
-0.188567
-0.209689
-0.225131
-0.233491
-0.233581
-0.22447
-0.205536
-0.176501
-0.137449
-0.0888492
-0.0315475
0.00011758
-0.00354726
-0.012186
-0.0253153
-0.0422276
-0.0620189
-0.0836222
-0.105848
-0.127428
-0.147066
-0.163485
-0.175477
-0.181952
-0.181986
-0.174857
-0.160083
-0.137449
-0.107024
-0.0691738
-0.0245585
5.1218e-05
-0.00236108
-0.00797993
-0.0164931
-0.0274433
-0.0402465
-0.0542139
-0.068577
-0.0825175
-0.0951979
-0.105793
-0.113524
-0.117688
-0.117689
-0.113061
-0.103494
-0.0888492
-0.0691738
-0.0447044
-0.0158696
9.928e-06
-0.000860989
-0.00286759
-0.00589894
-0.00979291
-0.0143421
-0.0193024
-0.0244011
-0.0293477
-0.0338454
-0.0376015
-0.04034
-0.0418114
-0.0418044
-0.0401545
-0.0367517
-0.0315475
-0.0245585
-0.0158696
-0.00563293
)
;

boundaryField
{
    leftWall
    {
        type            calculated;
        value           uniform 0;
    }
    rightWall
    {
        type            calculated;
        value           uniform 0;
    }
    topWall
    {
        type            calculated;
        value           uniform 0;
    }
    bottomWall
    {
        type            calculated;
        value           uniform 0;
    }
    backAndFront
    {
        type            empty;
    }
}


// ************************************************************************* //
