/*--------------------------------*- C++ -*----------------------------------*\
| =========                 |                                                 |
| \\      /  F ield         | OpenFOAM: The Open Source CFD Toolbox           |
|  \\    /   O peration     | Version:  5.x                                   |
|   \\  /    A nd           | Web:      www.OpenFOAM.org                      |
|    \\/     M anipulation  |                                                 |
\*---------------------------------------------------------------------------*/
FoamFile
{
    version     2.0;
    format      ascii;
    class       volScalarField;
    location    "0";
    object      u;
}
// * * * * * * * * * * * * * * * * * * * * * * * * * * * * * * * * * * * * * //

dimensions      [1 -1 -3 0 0 0 0];

internalField   nonuniform List<scalar> 
400
(
0.00345899
0.0103925
0.0173486
0.0242888
0.031123
0.0377111
0.0438701
0.0493847
0.0540204
0.0575387
0.059713
0.0603442
0.0592767
0.0564125
0.0517235
0.0452614
0.0371645
0.0276604
0.017064
0.00576892
0.0103925
0.031242
0.052196
0.0731449
0.0938166
0.113784
0.132488
0.14927
0.163411
0.174182
0.180887
0.182915
0.179786
0.171194
0.157047
0.137495
0.112952
0.0841031
0.0519034
0.017552
0.0173486
0.052196
0.0873103
0.122527
0.157391
0.191174
0.222918
0.251492
0.275663
0.294174
0.305826
0.309563
0.30455
0.290248
0.266481
0.233483
0.191942
0.14301
0.0883044
0.0298725
0.0242888
0.0731449
0.122527
0.17224
0.221645
0.269701
0.315025
0.35598
0.390781
0.417602
0.434702
0.440536
0.433881
0.413931
0.3804
0.333594
0.274465
0.204644
0.126437
0.042789
0.031123
0.0938166
0.157391
0.221645
0.285765
0.348385
0.407676
0.461471
0.507395
0.543022
0.566026
0.574345
0.566324
0.540867
0.49755
0.436731
0.359623
0.268336
0.165886
0.056161
0.0377111
0.113784
0.191174
0.269701
0.348385
0.425533
0.498864
0.565662
0.622946
0.667665
0.69689
0.708009
0.698921
0.668208
0.615292
0.540564
0.445482
0.332633
0.20575
0.0696817
0.0438701
0.132488
0.222918
0.315025
0.407676
0.498864
0.58586
0.665401
0.733904
0.787693
0.823229
0.837351
0.827499
0.791924
0.729878
0.641769
0.529283
0.395461
0.244737
0.0829122
0.0493847
0.14927
0.251492
0.35598
0.461471
0.565662
0.665401
0.756908
0.836024
0.898472
0.940131
0.957307
0.946993
0.907114
0.836747
0.736299
0.607658
0.454287
0.281271
0.0953165
0.0540204
0.163411
0.275663
0.390781
0.507395
0.622946
0.733904
0.836024
0.924625
0.994889
1.04216
1.06227
1.05179
1.00834
0.930831
0.819656
0.676868
0.506294
0.3136
0.106299
0.0575387
0.174182
0.294174
0.417602
0.543022
0.667665
0.787693
0.898472
0.994889
1.07167
1.12372
1.14644
1.13608
1.08997
1.00689
0.88718
0.733033
0.548563
0.339907
0.115242
0.059713
0.180887
0.305826
0.434702
0.566026
0.69689
0.823229
0.940131
1.04216
1.12372
1.17937
1.20422
1.19423
1.14655
1.05981
0.934337
0.772381
0.578254
0.358421
0.121544
0.0603442
0.182915
0.309563
0.440536
0.574345
0.708009
0.837351
0.957307
1.06227
1.14644
1.20422
1.23051
1.22114
1.17311
1.08497
0.957008
0.791478
0.592778
0.367533
0.124657
0.0592767
0.179786
0.30455
0.433881
0.566324
0.698921
0.827499
0.946993
1.05179
1.13608
1.19423
1.22114
1.21258
1.16555
1.07853
0.951766
0.787464
0.589976
0.365895
0.124122
0.0564125
0.171194
0.290248
0.413931
0.540867
0.668208
0.791924
0.907114
1.00834
1.08997
1.14655
1.17311
1.16555
1.12092
1.03772
0.916131
0.758263
0.568279
0.352527
0.119606
0.0517235
0.157047
0.266481
0.3804
0.49755
0.615292
0.729878
0.836747
0.930831
1.00689
1.05981
1.08497
1.07853
1.03772
0.961094
0.848811
0.702784
0.526855
0.326905
0.110929
0.0452614
0.137495
0.233483
0.333594
0.436731
0.540564
0.641769
0.736299
0.819656
0.88718
0.934337
0.957008
0.951766
0.916131
0.848811
0.749907
0.621089
0.465736
0.289044
0.098095
0.0371645
0.112952
0.191942
0.274465
0.359623
0.445482
0.529283
0.607658
0.676868
0.733033
0.772381
0.791478
0.787464
0.758263
0.702784
0.621089
0.514544
0.385937
0.239567
0.0813142
0.0276604
0.0841031
0.14301
0.204644
0.268336
0.332633
0.395461
0.454287
0.506294
0.548563
0.578254
0.592778
0.589976
0.568279
0.526855
0.465736
0.385937
0.289538
0.179761
0.061022
0.017064
0.0519034
0.0883044
0.126437
0.165886
0.20575
0.244737
0.281271
0.3136
0.339907
0.358421
0.367533
0.365895
0.352527
0.326905
0.289044
0.239567
0.179761
0.111622
0.0378956
0.00576892
0.017552
0.0298725
0.042789
0.056161
0.0696817
0.0829122
0.0953165
0.106299
0.115242
0.121544
0.124657
0.124122
0.119606
0.110929
0.098095
0.0813142
0.061022
0.0378956
0.0128666
)
;

boundaryField
{
    leftWall
    {
        type            fixedValue;
        value           uniform 0;
    }
    rightWall
    {
        type            fixedValue;
        value           uniform 0;
    }
    topWall
    {
        type            fixedValue;
        value           uniform 0;
    }
    bottomWall
    {
        type            fixedValue;
        value           uniform 0;
    }
    backAndFront
    {
        type            empty;
    }
}


// ************************************************************************* //
